+ 0.1 0 1 cbr 500 ------- 0 0.0 2.0 0 0
- 0.1 0 1 cbr 500 ------- 0 0.0 2.0 0 0
+ 0.105 0 1 cbr 500 ------- 0 0.0 2.0 1 1
+ 0.11 0 1 cbr 500 ------- 0 0.0 2.0 2 2
+ 0.115 0 1 cbr 500 ------- 0 0.0 2.0 3 3
- 0.12 0 1 cbr 500 ------- 0 0.0 2.0 1 1
+ 0.12 0 1 cbr 500 ------- 0 0.0 2.0 4 4
+ 0.125 0 1 cbr 500 ------- 0 0.0 2.0 5 5
r 0.13 0 1 cbr 500 ------- 0 0.0 2.0 0 0
+ 0.13 1 2 cbr 500 ------- 0 0.0 2.0 0 0
- 0.13 1 2 cbr 500 ------- 0 0.0 2.0 0 0
+ 0.13 0 1 cbr 500 ------- 0 0.0 2.0 6 6
+ 0.135 0 1 cbr 500 ------- 0 0.0 2.0 7 7
- 0.14 0 1 cbr 500 ------- 0 0.0 2.0 2 2
+ 0.14 0 1 cbr 500 ------- 0 0.0 2.0 8 8
+ 0.145 0 1 cbr 500 ------- 0 0.0 2.0 9 9
r 0.15 0 1 cbr 500 ------- 0 0.0 2.0 1 1
+ 0.15 1 2 cbr 500 ------- 0 0.0 2.0 1 1
+ 0.15 0 1 cbr 500 ------- 0 0.0 2.0 10 10
+ 0.155 0 1 cbr 500 ------- 0 0.0 2.0 11 11
- 0.16 0 1 cbr 500 ------- 0 0.0 2.0 3 3
+ 0.16 0 1 cbr 500 ------- 0 0.0 2.0 12 12
+ 0.165 0 1 cbr 500 ------- 0 0.0 2.0 13 13
d 0.165 0 1 cbr 500 ------- 0 0.0 2.0 13 13
r 0.17 0 1 cbr 500 ------- 0 0.0 2.0 2 2
+ 0.17 1 2 cbr 500 ------- 0 0.0 2.0 2 2
+ 0.17 0 1 cbr 500 ------- 0 0.0 2.0 14 14
d 0.17 0 1 cbr 500 ------- 0 0.0 2.0 14 14
+ 0.175 0 1 cbr 500 ------- 0 0.0 2.0 15 15
d 0.175 0 1 cbr 500 ------- 0 0.0 2.0 15 15
- 0.18 0 1 cbr 500 ------- 0 0.0 2.0 4 4
+ 0.18 0 1 cbr 500 ------- 0 0.0 2.0 16 16
+ 0.185 0 1 cbr 500 ------- 0 0.0 2.0 17 17
d 0.185 0 1 cbr 500 ------- 0 0.0 2.0 17 17
r 0.19 0 1 cbr 500 ------- 0 0.0 2.0 3 3
+ 0.19 1 2 cbr 500 ------- 0 0.0 2.0 3 3
+ 0.19 0 1 cbr 500 ------- 0 0.0 2.0 18 18
d 0.19 0 1 cbr 500 ------- 0 0.0 2.0 18 18
+ 0.195 0 1 cbr 500 ------- 0 0.0 2.0 19 19
d 0.195 0 1 cbr 500 ------- 0 0.0 2.0 19 19
- 0.2 0 1 cbr 500 ------- 0 0.0 2.0 5 5
+ 0.2 0 1 cbr 500 ------- 0 0.0 2.0 20 20
+ 0.205 0 1 cbr 500 ------- 0 0.0 2.0 21 21
d 0.205 0 1 cbr 500 ------- 0 0.0 2.0 21 21
r 0.21 0 1 cbr 500 ------- 0 0.0 2.0 4 4
+ 0.21 1 2 cbr 500 ------- 0 0.0 2.0 4 4
+ 0.21 0 1 cbr 500 ------- 0 0.0 2.0 22 22
d 0.21 0 1 cbr 500 ------- 0 0.0 2.0 22 22
+ 0.215 0 1 cbr 500 ------- 0 0.0 2.0 23 23
d 0.215 0 1 cbr 500 ------- 0 0.0 2.0 23 23
- 0.22 0 1 cbr 500 ------- 0 0.0 2.0 6 6
+ 0.22 0 1 cbr 500 ------- 0 0.0 2.0 24 24
+ 0.225 0 1 cbr 500 ------- 0 0.0 2.0 25 25
d 0.225 0 1 cbr 500 ------- 0 0.0 2.0 25 25
r 0.23 0 1 cbr 500 ------- 0 0.0 2.0 5 5
+ 0.23 1 2 cbr 500 ------- 0 0.0 2.0 5 5
+ 0.23 0 1 cbr 500 ------- 0 0.0 2.0 26 26
d 0.23 0 1 cbr 500 ------- 0 0.0 2.0 26 26
+ 0.235 0 1 cbr 500 ------- 0 0.0 2.0 27 27
d 0.235 0 1 cbr 500 ------- 0 0.0 2.0 27 27
- 0.24 0 1 cbr 500 ------- 0 0.0 2.0 7 7
+ 0.24 0 1 cbr 500 ------- 0 0.0 2.0 28 28
+ 0.245 0 1 cbr 500 ------- 0 0.0 2.0 29 29
d 0.245 0 1 cbr 500 ------- 0 0.0 2.0 29 29
r 0.25 0 1 cbr 500 ------- 0 0.0 2.0 6 6
+ 0.25 1 2 cbr 500 ------- 0 0.0 2.0 6 6
+ 0.25 0 1 cbr 500 ------- 0 0.0 2.0 30 30
d 0.25 0 1 cbr 500 ------- 0 0.0 2.0 30 30
+ 0.255 0 1 cbr 500 ------- 0 0.0 2.0 31 31
d 0.255 0 1 cbr 500 ------- 0 0.0 2.0 31 31
- 0.26 0 1 cbr 500 ------- 0 0.0 2.0 8 8
+ 0.26 0 1 cbr 500 ------- 0 0.0 2.0 32 32
+ 0.265 0 1 cbr 500 ------- 0 0.0 2.0 33 33
d 0.265 0 1 cbr 500 ------- 0 0.0 2.0 33 33
r 0.27 0 1 cbr 500 ------- 0 0.0 2.0 7 7
+ 0.27 1 2 cbr 500 ------- 0 0.0 2.0 7 7
+ 0.27 0 1 cbr 500 ------- 0 0.0 2.0 34 34
d 0.27 0 1 cbr 500 ------- 0 0.0 2.0 34 34
+ 0.275 0 1 cbr 500 ------- 0 0.0 2.0 35 35
d 0.275 0 1 cbr 500 ------- 0 0.0 2.0 35 35
- 0.28 0 1 cbr 500 ------- 0 0.0 2.0 9 9
+ 0.28 0 1 cbr 500 ------- 0 0.0 2.0 36 36
+ 0.285 0 1 cbr 500 ------- 0 0.0 2.0 37 37
d 0.285 0 1 cbr 500 ------- 0 0.0 2.0 37 37
r 0.29 0 1 cbr 500 ------- 0 0.0 2.0 8 8
+ 0.29 1 2 cbr 500 ------- 0 0.0 2.0 8 8
+ 0.29 0 1 cbr 500 ------- 0 0.0 2.0 38 38
d 0.29 0 1 cbr 500 ------- 0 0.0 2.0 38 38
+ 0.295 0 1 cbr 500 ------- 0 0.0 2.0 39 39
d 0.295 0 1 cbr 500 ------- 0 0.0 2.0 39 39
- 0.3 0 1 cbr 500 ------- 0 0.0 2.0 10 10
+ 0.3 0 1 cbr 500 ------- 0 0.0 2.0 40 40
+ 0.305 0 1 cbr 500 ------- 0 0.0 2.0 41 41
d 0.305 0 1 cbr 500 ------- 0 0.0 2.0 41 41
r 0.31 0 1 cbr 500 ------- 0 0.0 2.0 9 9
+ 0.31 1 2 cbr 500 ------- 0 0.0 2.0 9 9
+ 0.31 0 1 cbr 500 ------- 0 0.0 2.0 42 42
d 0.31 0 1 cbr 500 ------- 0 0.0 2.0 42 42
+ 0.315 0 1 cbr 500 ------- 0 0.0 2.0 43 43
d 0.315 0 1 cbr 500 ------- 0 0.0 2.0 43 43
- 0.32 0 1 cbr 500 ------- 0 0.0 2.0 11 11
+ 0.32 0 1 cbr 500 ------- 0 0.0 2.0 44 44
+ 0.325 0 1 cbr 500 ------- 0 0.0 2.0 45 45
d 0.325 0 1 cbr 500 ------- 0 0.0 2.0 45 45
r 0.33 0 1 cbr 500 ------- 0 0.0 2.0 10 10
+ 0.33 1 2 cbr 500 ------- 0 0.0 2.0 10 10
- 0.33 1 2 cbr 500 ------- 0 0.0 2.0 1 1
+ 0.33 0 1 cbr 500 ------- 0 0.0 2.0 46 46
d 0.33 0 1 cbr 500 ------- 0 0.0 2.0 46 46
+ 0.335 0 1 cbr 500 ------- 0 0.0 2.0 47 47
d 0.335 0 1 cbr 500 ------- 0 0.0 2.0 47 47
- 0.34 0 1 cbr 500 ------- 0 0.0 2.0 12 12
+ 0.34 0 1 cbr 500 ------- 0 0.0 2.0 48 48
+ 0.345 0 1 cbr 500 ------- 0 0.0 2.0 49 49
d 0.345 0 1 cbr 500 ------- 0 0.0 2.0 49 49
r 0.35 0 1 cbr 500 ------- 0 0.0 2.0 11 11
+ 0.35 1 2 cbr 500 ------- 0 0.0 2.0 11 11
+ 0.35 0 1 cbr 500 ------- 0 0.0 2.0 50 50
d 0.35 0 1 cbr 500 ------- 0 0.0 2.0 50 50
+ 0.355 0 1 cbr 500 ------- 0 0.0 2.0 51 51
d 0.355 0 1 cbr 500 ------- 0 0.0 2.0 51 51
- 0.36 0 1 cbr 500 ------- 0 0.0 2.0 16 16
+ 0.36 0 1 cbr 500 ------- 0 0.0 2.0 52 52
+ 0.365 0 1 cbr 500 ------- 0 0.0 2.0 53 53
d 0.365 0 1 cbr 500 ------- 0 0.0 2.0 53 53
r 0.37 0 1 cbr 500 ------- 0 0.0 2.0 12 12
+ 0.37 1 2 cbr 500 ------- 0 0.0 2.0 12 12
+ 0.37 0 1 cbr 500 ------- 0 0.0 2.0 54 54
d 0.37 0 1 cbr 500 ------- 0 0.0 2.0 54 54
+ 0.375 0 1 cbr 500 ------- 0 0.0 2.0 55 55
d 0.375 0 1 cbr 500 ------- 0 0.0 2.0 55 55
- 0.38 0 1 cbr 500 ------- 0 0.0 2.0 20 20
+ 0.38 0 1 cbr 500 ------- 0 0.0 2.0 56 56
+ 0.385 0 1 cbr 500 ------- 0 0.0 2.0 57 57
d 0.385 0 1 cbr 500 ------- 0 0.0 2.0 57 57
r 0.39 0 1 cbr 500 ------- 0 0.0 2.0 16 16
+ 0.39 1 2 cbr 500 ------- 0 0.0 2.0 16 16
+ 0.39 0 1 cbr 500 ------- 0 0.0 2.0 58 58
d 0.39 0 1 cbr 500 ------- 0 0.0 2.0 58 58
+ 0.395 0 1 cbr 500 ------- 0 0.0 2.0 59 59
d 0.395 0 1 cbr 500 ------- 0 0.0 2.0 59 59
- 0.4 0 1 cbr 500 ------- 0 0.0 2.0 24 24
+ 0.4 0 1 cbr 500 ------- 0 0.0 2.0 60 60
+ 0.405 0 1 cbr 500 ------- 0 0.0 2.0 61 61
d 0.405 0 1 cbr 500 ------- 0 0.0 2.0 61 61
r 0.41 0 1 cbr 500 ------- 0 0.0 2.0 20 20
+ 0.41 1 2 cbr 500 ------- 0 0.0 2.0 20 20
+ 0.41 0 1 cbr 500 ------- 0 0.0 2.0 62 62
d 0.41 0 1 cbr 500 ------- 0 0.0 2.0 62 62
+ 0.415 0 1 cbr 500 ------- 0 0.0 2.0 63 63
d 0.415 0 1 cbr 500 ------- 0 0.0 2.0 63 63
- 0.42 0 1 cbr 500 ------- 0 0.0 2.0 28 28
+ 0.42 0 1 cbr 500 ------- 0 0.0 2.0 64 64
+ 0.425 0 1 cbr 500 ------- 0 0.0 2.0 65 65
d 0.425 0 1 cbr 500 ------- 0 0.0 2.0 65 65
r 0.43 1 2 cbr 500 ------- 0 0.0 2.0 0 0
r 0.43 0 1 cbr 500 ------- 0 0.0 2.0 24 24
+ 0.43 1 2 cbr 500 ------- 0 0.0 2.0 24 24
+ 0.43 0 1 cbr 500 ------- 0 0.0 2.0 66 66
d 0.43 0 1 cbr 500 ------- 0 0.0 2.0 66 66
+ 0.435 0 1 cbr 500 ------- 0 0.0 2.0 67 67
d 0.435 0 1 cbr 500 ------- 0 0.0 2.0 67 67
- 0.44 0 1 cbr 500 ------- 0 0.0 2.0 32 32
+ 0.44 0 1 cbr 500 ------- 0 0.0 2.0 68 68
+ 0.445 0 1 cbr 500 ------- 0 0.0 2.0 69 69
d 0.445 0 1 cbr 500 ------- 0 0.0 2.0 69 69
r 0.45 0 1 cbr 500 ------- 0 0.0 2.0 28 28
+ 0.45 1 2 cbr 500 ------- 0 0.0 2.0 28 28
+ 0.45 0 1 cbr 500 ------- 0 0.0 2.0 70 70
d 0.45 0 1 cbr 500 ------- 0 0.0 2.0 70 70
+ 0.455 0 1 cbr 500 ------- 0 0.0 2.0 71 71
d 0.455 0 1 cbr 500 ------- 0 0.0 2.0 71 71
- 0.46 0 1 cbr 500 ------- 0 0.0 2.0 36 36
+ 0.46 0 1 cbr 500 ------- 0 0.0 2.0 72 72
+ 0.465 0 1 cbr 500 ------- 0 0.0 2.0 73 73
d 0.465 0 1 cbr 500 ------- 0 0.0 2.0 73 73
r 0.47 0 1 cbr 500 ------- 0 0.0 2.0 32 32
+ 0.47 1 2 cbr 500 ------- 0 0.0 2.0 32 32
+ 0.47 0 1 cbr 500 ------- 0 0.0 2.0 74 74
d 0.47 0 1 cbr 500 ------- 0 0.0 2.0 74 74
+ 0.475 0 1 cbr 500 ------- 0 0.0 2.0 75 75
d 0.475 0 1 cbr 500 ------- 0 0.0 2.0 75 75
- 0.48 0 1 cbr 500 ------- 0 0.0 2.0 40 40
+ 0.48 0 1 cbr 500 ------- 0 0.0 2.0 76 76
+ 0.485 0 1 cbr 500 ------- 0 0.0 2.0 77 77
d 0.485 0 1 cbr 500 ------- 0 0.0 2.0 77 77
r 0.49 0 1 cbr 500 ------- 0 0.0 2.0 36 36
+ 0.49 1 2 cbr 500 ------- 0 0.0 2.0 36 36
+ 0.49 0 1 cbr 500 ------- 0 0.0 2.0 78 78
d 0.49 0 1 cbr 500 ------- 0 0.0 2.0 78 78
+ 0.495 0 1 cbr 500 ------- 0 0.0 2.0 79 79
d 0.495 0 1 cbr 500 ------- 0 0.0 2.0 79 79
- 0.5 0 1 cbr 500 ------- 0 0.0 2.0 44 44
+ 0.5 0 1 cbr 500 ------- 0 0.0 2.0 80 80
+ 0.505 0 1 cbr 500 ------- 0 0.0 2.0 81 81
d 0.505 0 1 cbr 500 ------- 0 0.0 2.0 81 81
r 0.51 0 1 cbr 500 ------- 0 0.0 2.0 40 40
+ 0.51 1 2 cbr 500 ------- 0 0.0 2.0 40 40
+ 0.51 0 1 cbr 500 ------- 0 0.0 2.0 82 82
d 0.51 0 1 cbr 500 ------- 0 0.0 2.0 82 82
+ 0.515 0 1 cbr 500 ------- 0 0.0 2.0 83 83
d 0.515 0 1 cbr 500 ------- 0 0.0 2.0 83 83
- 0.52 0 1 cbr 500 ------- 0 0.0 2.0 48 48
+ 0.52 0 1 cbr 500 ------- 0 0.0 2.0 84 84
+ 0.525 0 1 cbr 500 ------- 0 0.0 2.0 85 85
d 0.525 0 1 cbr 500 ------- 0 0.0 2.0 85 85
- 0.53 1 2 cbr 500 ------- 0 0.0 2.0 2 2
r 0.53 0 1 cbr 500 ------- 0 0.0 2.0 44 44
+ 0.53 1 2 cbr 500 ------- 0 0.0 2.0 44 44
+ 0.53 0 1 cbr 500 ------- 0 0.0 2.0 86 86
d 0.53 0 1 cbr 500 ------- 0 0.0 2.0 86 86
+ 0.535 0 1 cbr 500 ------- 0 0.0 2.0 87 87
d 0.535 0 1 cbr 500 ------- 0 0.0 2.0 87 87
- 0.54 0 1 cbr 500 ------- 0 0.0 2.0 52 52
+ 0.54 0 1 cbr 500 ------- 0 0.0 2.0 88 88
+ 0.545 0 1 cbr 500 ------- 0 0.0 2.0 89 89
d 0.545 0 1 cbr 500 ------- 0 0.0 2.0 89 89
r 0.55 0 1 cbr 500 ------- 0 0.0 2.0 48 48
+ 0.55 1 2 cbr 500 ------- 0 0.0 2.0 48 48
+ 0.55 0 1 cbr 500 ------- 0 0.0 2.0 90 90
d 0.55 0 1 cbr 500 ------- 0 0.0 2.0 90 90
+ 0.555 0 1 cbr 500 ------- 0 0.0 2.0 91 91
d 0.555 0 1 cbr 500 ------- 0 0.0 2.0 91 91
- 0.56 0 1 cbr 500 ------- 0 0.0 2.0 56 56
+ 0.56 0 1 cbr 500 ------- 0 0.0 2.0 92 92
+ 0.565 0 1 cbr 500 ------- 0 0.0 2.0 93 93
d 0.565 0 1 cbr 500 ------- 0 0.0 2.0 93 93
r 0.57 0 1 cbr 500 ------- 0 0.0 2.0 52 52
+ 0.57 1 2 cbr 500 ------- 0 0.0 2.0 52 52
+ 0.57 0 1 cbr 500 ------- 0 0.0 2.0 94 94
d 0.57 0 1 cbr 500 ------- 0 0.0 2.0 94 94
+ 0.575 0 1 cbr 500 ------- 0 0.0 2.0 95 95
d 0.575 0 1 cbr 500 ------- 0 0.0 2.0 95 95
- 0.58 0 1 cbr 500 ------- 0 0.0 2.0 60 60
+ 0.58 0 1 cbr 500 ------- 0 0.0 2.0 96 96
+ 0.585 0 1 cbr 500 ------- 0 0.0 2.0 97 97
d 0.585 0 1 cbr 500 ------- 0 0.0 2.0 97 97
r 0.59 0 1 cbr 500 ------- 0 0.0 2.0 56 56
+ 0.59 1 2 cbr 500 ------- 0 0.0 2.0 56 56
+ 0.59 0 1 cbr 500 ------- 0 0.0 2.0 98 98
d 0.59 0 1 cbr 500 ------- 0 0.0 2.0 98 98
+ 0.595 0 1 cbr 500 ------- 0 0.0 2.0 99 99
d 0.595 0 1 cbr 500 ------- 0 0.0 2.0 99 99
- 0.6 0 1 cbr 500 ------- 0 0.0 2.0 64 64
+ 0.6 0 1 cbr 500 ------- 0 0.0 2.0 100 100
+ 0.605 0 1 cbr 500 ------- 0 0.0 2.0 101 101
d 0.605 0 1 cbr 500 ------- 0 0.0 2.0 101 101
r 0.61 0 1 cbr 500 ------- 0 0.0 2.0 60 60
+ 0.61 1 2 cbr 500 ------- 0 0.0 2.0 60 60
+ 0.61 0 1 cbr 500 ------- 0 0.0 2.0 102 102
d 0.61 0 1 cbr 500 ------- 0 0.0 2.0 102 102
+ 0.615 0 1 cbr 500 ------- 0 0.0 2.0 103 103
d 0.615 0 1 cbr 500 ------- 0 0.0 2.0 103 103
- 0.62 0 1 cbr 500 ------- 0 0.0 2.0 68 68
+ 0.62 0 1 cbr 500 ------- 0 0.0 2.0 104 104
+ 0.625 0 1 cbr 500 ------- 0 0.0 2.0 105 105
d 0.625 0 1 cbr 500 ------- 0 0.0 2.0 105 105
r 0.63 1 2 cbr 500 ------- 0 0.0 2.0 1 1
r 0.63 0 1 cbr 500 ------- 0 0.0 2.0 64 64
+ 0.63 1 2 cbr 500 ------- 0 0.0 2.0 64 64
+ 0.63 0 1 cbr 500 ------- 0 0.0 2.0 106 106
d 0.63 0 1 cbr 500 ------- 0 0.0 2.0 106 106
+ 0.635 0 1 cbr 500 ------- 0 0.0 2.0 107 107
d 0.635 0 1 cbr 500 ------- 0 0.0 2.0 107 107
- 0.64 0 1 cbr 500 ------- 0 0.0 2.0 72 72
+ 0.64 0 1 cbr 500 ------- 0 0.0 2.0 108 108
+ 0.645 0 1 cbr 500 ------- 0 0.0 2.0 109 109
d 0.645 0 1 cbr 500 ------- 0 0.0 2.0 109 109
r 0.65 0 1 cbr 500 ------- 0 0.0 2.0 68 68
+ 0.65 1 2 cbr 500 ------- 0 0.0 2.0 68 68
+ 0.65 0 1 cbr 500 ------- 0 0.0 2.0 110 110
d 0.65 0 1 cbr 500 ------- 0 0.0 2.0 110 110
+ 0.655 0 1 cbr 500 ------- 0 0.0 2.0 111 111
d 0.655 0 1 cbr 500 ------- 0 0.0 2.0 111 111
- 0.66 0 1 cbr 500 ------- 0 0.0 2.0 76 76
+ 0.66 0 1 cbr 500 ------- 0 0.0 2.0 112 112
+ 0.665 0 1 cbr 500 ------- 0 0.0 2.0 113 113
d 0.665 0 1 cbr 500 ------- 0 0.0 2.0 113 113
r 0.67 0 1 cbr 500 ------- 0 0.0 2.0 72 72
+ 0.67 1 2 cbr 500 ------- 0 0.0 2.0 72 72
+ 0.67 0 1 cbr 500 ------- 0 0.0 2.0 114 114
d 0.67 0 1 cbr 500 ------- 0 0.0 2.0 114 114
+ 0.675 0 1 cbr 500 ------- 0 0.0 2.0 115 115
d 0.675 0 1 cbr 500 ------- 0 0.0 2.0 115 115
- 0.68 0 1 cbr 500 ------- 0 0.0 2.0 80 80
+ 0.68 0 1 cbr 500 ------- 0 0.0 2.0 116 116
+ 0.685 0 1 cbr 500 ------- 0 0.0 2.0 117 117
d 0.685 0 1 cbr 500 ------- 0 0.0 2.0 117 117
r 0.69 0 1 cbr 500 ------- 0 0.0 2.0 76 76
+ 0.69 1 2 cbr 500 ------- 0 0.0 2.0 76 76
+ 0.69 0 1 cbr 500 ------- 0 0.0 2.0 118 118
d 0.69 0 1 cbr 500 ------- 0 0.0 2.0 118 118
+ 0.695 0 1 cbr 500 ------- 0 0.0 2.0 119 119
d 0.695 0 1 cbr 500 ------- 0 0.0 2.0 119 119
- 0.7 0 1 cbr 500 ------- 0 0.0 2.0 84 84
+ 0.7 0 1 cbr 500 ------- 0 0.0 2.0 120 120
+ 0.705 0 1 cbr 500 ------- 0 0.0 2.0 121 121
d 0.705 0 1 cbr 500 ------- 0 0.0 2.0 121 121
r 0.71 0 1 cbr 500 ------- 0 0.0 2.0 80 80
+ 0.71 1 2 cbr 500 ------- 0 0.0 2.0 80 80
+ 0.71 0 1 cbr 500 ------- 0 0.0 2.0 122 122
d 0.71 0 1 cbr 500 ------- 0 0.0 2.0 122 122
+ 0.715 0 1 cbr 500 ------- 0 0.0 2.0 123 123
d 0.715 0 1 cbr 500 ------- 0 0.0 2.0 123 123
- 0.72 0 1 cbr 500 ------- 0 0.0 2.0 88 88
+ 0.72 0 1 cbr 500 ------- 0 0.0 2.0 124 124
+ 0.725 0 1 cbr 500 ------- 0 0.0 2.0 125 125
d 0.725 0 1 cbr 500 ------- 0 0.0 2.0 125 125
- 0.73 1 2 cbr 500 ------- 0 0.0 2.0 3 3
r 0.73 0 1 cbr 500 ------- 0 0.0 2.0 84 84
+ 0.73 1 2 cbr 500 ------- 0 0.0 2.0 84 84
+ 0.73 0 1 cbr 500 ------- 0 0.0 2.0 126 126
d 0.73 0 1 cbr 500 ------- 0 0.0 2.0 126 126
+ 0.735 0 1 cbr 500 ------- 0 0.0 2.0 127 127
d 0.735 0 1 cbr 500 ------- 0 0.0 2.0 127 127
- 0.74 0 1 cbr 500 ------- 0 0.0 2.0 92 92
+ 0.74 0 1 cbr 500 ------- 0 0.0 2.0 128 128
+ 0.745 0 1 cbr 500 ------- 0 0.0 2.0 129 129
d 0.745 0 1 cbr 500 ------- 0 0.0 2.0 129 129
r 0.75 0 1 cbr 500 ------- 0 0.0 2.0 88 88
+ 0.75 1 2 cbr 500 ------- 0 0.0 2.0 88 88
+ 0.75 0 1 cbr 500 ------- 0 0.0 2.0 130 130
d 0.75 0 1 cbr 500 ------- 0 0.0 2.0 130 130
+ 0.755 0 1 cbr 500 ------- 0 0.0 2.0 131 131
d 0.755 0 1 cbr 500 ------- 0 0.0 2.0 131 131
- 0.76 0 1 cbr 500 ------- 0 0.0 2.0 96 96
+ 0.76 0 1 cbr 500 ------- 0 0.0 2.0 132 132
+ 0.765 0 1 cbr 500 ------- 0 0.0 2.0 133 133
d 0.765 0 1 cbr 500 ------- 0 0.0 2.0 133 133
r 0.77 0 1 cbr 500 ------- 0 0.0 2.0 92 92
+ 0.77 1 2 cbr 500 ------- 0 0.0 2.0 92 92
+ 0.77 0 1 cbr 500 ------- 0 0.0 2.0 134 134
d 0.77 0 1 cbr 500 ------- 0 0.0 2.0 134 134
+ 0.775 0 1 cbr 500 ------- 0 0.0 2.0 135 135
d 0.775 0 1 cbr 500 ------- 0 0.0 2.0 135 135
- 0.78 0 1 cbr 500 ------- 0 0.0 2.0 100 100
+ 0.78 0 1 cbr 500 ------- 0 0.0 2.0 136 136
+ 0.785 0 1 cbr 500 ------- 0 0.0 2.0 137 137
d 0.785 0 1 cbr 500 ------- 0 0.0 2.0 137 137
r 0.79 0 1 cbr 500 ------- 0 0.0 2.0 96 96
+ 0.79 1 2 cbr 500 ------- 0 0.0 2.0 96 96
+ 0.79 0 1 cbr 500 ------- 0 0.0 2.0 138 138
d 0.79 0 1 cbr 500 ------- 0 0.0 2.0 138 138
+ 0.795 0 1 cbr 500 ------- 0 0.0 2.0 139 139
d 0.795 0 1 cbr 500 ------- 0 0.0 2.0 139 139
- 0.8 0 1 cbr 500 ------- 0 0.0 2.0 104 104
+ 0.8 0 1 cbr 500 ------- 0 0.0 2.0 140 140
+ 0.805 0 1 cbr 500 ------- 0 0.0 2.0 141 141
d 0.805 0 1 cbr 500 ------- 0 0.0 2.0 141 141
r 0.81 0 1 cbr 500 ------- 0 0.0 2.0 100 100
+ 0.81 1 2 cbr 500 ------- 0 0.0 2.0 100 100
+ 0.81 0 1 cbr 500 ------- 0 0.0 2.0 142 142
d 0.81 0 1 cbr 500 ------- 0 0.0 2.0 142 142
+ 0.815 0 1 cbr 500 ------- 0 0.0 2.0 143 143
d 0.815 0 1 cbr 500 ------- 0 0.0 2.0 143 143
- 0.82 0 1 cbr 500 ------- 0 0.0 2.0 108 108
+ 0.82 0 1 cbr 500 ------- 0 0.0 2.0 144 144
+ 0.825 0 1 cbr 500 ------- 0 0.0 2.0 145 145
d 0.825 0 1 cbr 500 ------- 0 0.0 2.0 145 145
r 0.83 1 2 cbr 500 ------- 0 0.0 2.0 2 2
r 0.83 0 1 cbr 500 ------- 0 0.0 2.0 104 104
+ 0.83 1 2 cbr 500 ------- 0 0.0 2.0 104 104
+ 0.83 0 1 cbr 500 ------- 0 0.0 2.0 146 146
d 0.83 0 1 cbr 500 ------- 0 0.0 2.0 146 146
+ 0.835 0 1 cbr 500 ------- 0 0.0 2.0 147 147
d 0.835 0 1 cbr 500 ------- 0 0.0 2.0 147 147
- 0.84 0 1 cbr 500 ------- 0 0.0 2.0 112 112
+ 0.84 0 1 cbr 500 ------- 0 0.0 2.0 148 148
+ 0.845 0 1 cbr 500 ------- 0 0.0 2.0 149 149
d 0.845 0 1 cbr 500 ------- 0 0.0 2.0 149 149
r 0.85 0 1 cbr 500 ------- 0 0.0 2.0 108 108
+ 0.85 1 2 cbr 500 ------- 0 0.0 2.0 108 108
+ 0.85 0 1 cbr 500 ------- 0 0.0 2.0 150 150
d 0.85 0 1 cbr 500 ------- 0 0.0 2.0 150 150
+ 0.855 0 1 cbr 500 ------- 0 0.0 2.0 151 151
d 0.855 0 1 cbr 500 ------- 0 0.0 2.0 151 151
- 0.86 0 1 cbr 500 ------- 0 0.0 2.0 116 116
+ 0.86 0 1 cbr 500 ------- 0 0.0 2.0 152 152
+ 0.865 0 1 cbr 500 ------- 0 0.0 2.0 153 153
d 0.865 0 1 cbr 500 ------- 0 0.0 2.0 153 153
r 0.87 0 1 cbr 500 ------- 0 0.0 2.0 112 112
+ 0.87 1 2 cbr 500 ------- 0 0.0 2.0 112 112
+ 0.87 0 1 cbr 500 ------- 0 0.0 2.0 154 154
d 0.87 0 1 cbr 500 ------- 0 0.0 2.0 154 154
+ 0.875 0 1 cbr 500 ------- 0 0.0 2.0 155 155
d 0.875 0 1 cbr 500 ------- 0 0.0 2.0 155 155
- 0.88 0 1 cbr 500 ------- 0 0.0 2.0 120 120
+ 0.88 0 1 cbr 500 ------- 0 0.0 2.0 156 156
+ 0.885 0 1 cbr 500 ------- 0 0.0 2.0 157 157
d 0.885 0 1 cbr 500 ------- 0 0.0 2.0 157 157
r 0.89 0 1 cbr 500 ------- 0 0.0 2.0 116 116
+ 0.89 1 2 cbr 500 ------- 0 0.0 2.0 116 116
+ 0.89 0 1 cbr 500 ------- 0 0.0 2.0 158 158
d 0.89 0 1 cbr 500 ------- 0 0.0 2.0 158 158
+ 0.895 0 1 cbr 500 ------- 0 0.0 2.0 159 159
d 0.895 0 1 cbr 500 ------- 0 0.0 2.0 159 159
- 0.9 0 1 cbr 500 ------- 0 0.0 2.0 124 124
r 0.91 0 1 cbr 500 ------- 0 0.0 2.0 120 120
+ 0.91 1 2 cbr 500 ------- 0 0.0 2.0 120 120
- 0.92 0 1 cbr 500 ------- 0 0.0 2.0 128 128
- 0.93 1 2 cbr 500 ------- 0 0.0 2.0 4 4
r 0.93 0 1 cbr 500 ------- 0 0.0 2.0 124 124
+ 0.93 1 2 cbr 500 ------- 0 0.0 2.0 124 124
- 0.94 0 1 cbr 500 ------- 0 0.0 2.0 132 132
r 0.95 0 1 cbr 500 ------- 0 0.0 2.0 128 128
+ 0.95 1 2 cbr 500 ------- 0 0.0 2.0 128 128
- 0.96 0 1 cbr 500 ------- 0 0.0 2.0 136 136
r 0.97 0 1 cbr 500 ------- 0 0.0 2.0 132 132
+ 0.97 1 2 cbr 500 ------- 0 0.0 2.0 132 132
- 0.98 0 1 cbr 500 ------- 0 0.0 2.0 140 140
r 0.99 0 1 cbr 500 ------- 0 0.0 2.0 136 136
+ 0.99 1 2 cbr 500 ------- 0 0.0 2.0 136 136
